                         Program Version 6.0.1  -  RELEASE   -
|  1> ! Freq B3LYP def2-SVP
|  2>
|  3> %freq
|  4> end
|  5>
|  6> %FREQ TEMP 298.15, 295, 300, 400, 600, 800, 1000
|  7> END
|  8>
|  9> * xyz -1 1
| 10>   C     -2.081149    3.357535    0.070010
| 11>   H     -1.011250    3.494910    0.226940
| 12>   Br    -3.002189    5.144508    0.572870
| 13>   H     -2.491174    2.590893    0.727584
| 14>   H     -2.314469    3.160217   -0.976345
| 15>   Cl    -0.787470    0.859747   -0.621070
| 16> *
| 17>
| 18>                          ****END OF INPUT****

CARTESIAN COORDINATES (ANGSTROEM)
---------------------------------
  C     -2.081149    3.357535    0.070010
  H     -1.011250    3.494910    0.226940
  Br    -3.002189    5.144508    0.572870
  H     -2.491174    2.590893    0.727584
  H     -2.314469    3.160217   -0.976345
  Cl    -0.787470    0.859747   -0.621070

 Total Charge           Charge          ....   -1
 Multiplicity           Mult            ....    1
 Number of Electrons    NEL             ....   62
 Basis Dimension        Dim             ....   79

ORBITAL ENERGIES
----------------

  NO   OCC          E(Eh)            E(eV)
   0   2.0000    -482.611667    -13132.5311
   1   2.0000    -101.153215     -2752.5189
   2   2.0000     -62.295456     -1695.1455
   3   2.0000     -56.127156     -1527.2976
   4   2.0000     -56.125009     -1527.2391
   5   2.0000     -56.125009     -1527.2391
   6   2.0000     -10.069233      -273.9978
   7   2.0000      -9.104442      -247.7445
   8   2.0000      -8.513221      -231.6565
   9   2.0000      -6.868627      -186.9048
  10   2.0000      -6.866895      -186.8577
  11   2.0000      -6.866892      -186.8576
  12   2.0000      -6.345253      -172.6631
  13   2.0000      -6.334508      -172.3707
  14   2.0000      -6.334503      -172.3706
  15   2.0000      -2.459552       -66.9278
  16   2.0000      -2.456678       -66.8496
  17   2.0000      -2.456670       -66.8494
  18   2.0000      -2.448118       -66.6167
  19   2.0000      -2.448111       -66.6165
  20   2.0000      -0.617406       -16.8005
  21   2.0000      -0.500949       -13.6315
  22   2.0000      -0.454024       -12.3546
  23   2.0000      -0.265654        -7.2288
  24   2.0000      -0.265569        -7.2265
  25   2.0000      -0.205580        -5.5941
  26   2.0000      -0.121482        -3.3057
  27   2.0000      -0.121461        -3.3051
  28   2.0000      -0.007790        -0.2120
  29   2.0000      -0.004243        -0.1155
  30   2.0000      -0.004233        -0.1152
  31   0.0000       0.153088         4.1657
  32   0.0000       0.239393         6.5142
  33   0.0000       0.290820         7.9136
  34   0.0000       0.291046         7.9198
  35   0.0000       0.493239        13.4217

MULLIKEN ATOMIC CHARGES
-----------------------
   0 C :    0.022844
   1 H :    0.046663
   2 Br:   -0.373868
   3 H :    0.046676
   4 H :    0.046330
   5 Cl:   -0.788644
Sum of atomic charges:   -1.0000000

LOEWDIN ATOMIC CHARGES
----------------------
   0 C :   -0.072916
   1 H :    0.015907
   2 Br:   -0.205024
   3 H :    0.015936
   4 H :    0.015966
   5 Cl:   -0.769869

  Mayer bond orders larger than 0.100000
B(  0-C ,  1-H ) :   0.9700 B(  0-C ,  2-Br) :   0.7734 B(  0-C ,  3-H ) :   0.9701
B(  0-C ,  4-H ) :   0.9704

FINAL SINGLE POINT ENERGY     -3073.635926726937

DIPOLE MOMENT
-------------

Method             : SCF
Type of density    : Electron Density
Multiplicity       :   1
Irrep              :   0
Energy             : -3073.6359267269367592 Eh
Relativity type    :
Basis              : AO
                                X                 Y                 Z
Electronic contribution:     -7.244564001      14.033657300       3.927817562
Nuclear contribution   :      5.580096619     -10.815812508      -3.033620012
                        -----------------------------------------
Total Dipole Moment    :     -1.664467382       3.217844792       0.894197550
                        -----------------------------------------
Magnitude (a.u.)       :      3.731563483
Magnitude (Debye)      :      9.484880599

VIBRATIONAL FREQUENCIES
-----------------------

Scaling factor for frequencies =  1.000000000  (already applied!)

     0:       0.00 cm**-1
     1:       0.00 cm**-1
     2:       0.00 cm**-1
     3:       0.00 cm**-1
     4:       0.00 cm**-1
     5:       0.00 cm**-1
     6:      98.20 cm**-1
     7:      98.84 cm**-1
     8:     137.44 cm**-1
     9:     356.62 cm**-1
    10:     830.94 cm**-1
    11:     831.04 cm**-1
    12:    1141.55 cm**-1
    13:    1402.49 cm**-1
    14:    1402.61 cm**-1
    15:    3134.85 cm**-1
    16:    3286.91 cm**-1
    17:    3287.13 cm**-1

IR SPECTRUM
-----------

 Mode   freq       eps      Int      T**2         TX        TY        TZ
       cm**-1   L/(mol*cm) km/mol    a.u.
----------------------------------------------------------------------------
  6:     98.20   0.001265    6.39  0.004019  (-0.032119  0.002239 -0.054614)
  7:     98.84   0.001271    6.42  0.004014  (-0.047994 -0.031590  0.026691)
  8:    137.44   0.011691   59.08  0.026546  ( 0.072336 -0.140592 -0.039332)
  9:    356.62   0.070409  355.82  0.061613  ( 0.110482 -0.214094 -0.059753)
 10:    830.94   0.000861    4.35  0.000323  ( 0.008016  0.000103  0.016100)
 11:    831.04   0.000864    4.36  0.000324  ( 0.013703  0.009463 -0.006851)
 12:   1141.55   0.006660   33.66  0.001821  (-0.018955  0.036743  0.010552)
 13:   1402.49   0.000631    3.19  0.000140  ( 0.000957  0.003934 -0.011136)
 14:   1402.61   0.000613    3.10  0.000136  (-0.010497 -0.004589 -0.002275)
 15:   3134.85   0.000074    0.37  0.000007  (-0.001136  0.002360  0.000700)
 16:   3286.91   0.000004    0.02  0.000000  (-0.000007  0.000316 -0.000570)
 17:   3287.13   0.000007    0.03  0.000001  ( 0.000684  0.000361  0.000173)

--------------------------
THERMOCHEMISTRY AT 1000.00K
--------------------------

Temperature         ...  1000.00 K
Pressure            ...     1.00 atm
Total Mass          ...   130.39 AMU
Quasi RRHO          ...     True
Cut-Off Frequency   ...     1.00 cm^-1

Throughout the following assumptions are being made:
  (1) The electronic state is orbitally nondegenerate
  (2) There are no thermally accessible electronically excited states
  (3) Hindered rotations indicated by low frequency modes are not
      treated as such but are treated as vibrations and this may
      cause some error
  (4) All equations used are the standard statistical mechanics
      equations for an ideal gas
  (5) All vibrations are strictly harmonic

freq.      98.20  E(vib)   ...       1.85
freq.      98.84  E(vib)   ...       1.85
freq.     137.44  E(vib)   ...       1.80
freq.     356.62  E(vib)   ...       1.52
freq.     830.94  E(vib)   ...       1.03
freq.     831.04  E(vib)   ...       1.03
freq.    1141.55  E(vib)   ...       0.78
freq.    1402.49  E(vib)   ...       0.61
freq.    1402.61  E(vib)   ...       0.61
freq.    3134.85  E(vib)   ...       0.10
freq.    3286.91  E(vib)   ...       0.08
freq.    3287.13  E(vib)   ...       0.08

------------
INNER ENERGY
------------

The inner energy is: U= E(el) + E(ZPE) + E(vib) + E(rot) + E(trans)
    E(el)   - is the total energy from the electronic structure calculation
              = E(kin-el) + E(nuc-el) + E(el-el) + E(nuc-nuc)
    E(ZPE)  - the the zero temperature vibrational energy from the frequency calculation
    E(vib)  - the the finite temperature correction to E(ZPE) due to population
              of excited vibrational states
    E(rot)  - is the rotational thermal energy
    E(trans)- is the translational thermal energy

Summary of contributions to the inner energy U:
Electronic energy                ...  -3073.63592673 Eh
Zero point energy                ...      0.03647033 Eh      22.89 kcal/mol
Thermal vibrational correction   ...      0.01810114 Eh      11.36 kcal/mol
Thermal rotational correction    ...      0.00475020 Eh       2.98 kcal/mol
Thermal translational correction ...      0.00475020 Eh       2.98 kcal/mol
-----------------------------------------------------------------------
Total thermal energy                  -3073.57185486 Eh

Summary of corrections to the electronic energy:
(perhaps to be used in another calculation)
Total thermal correction                  0.02760153 Eh      17.32 kcal/mol
Non-thermal (ZPE) correction              0.03647033 Eh      22.89 kcal/mol
-----------------------------------------------------------------------
Total correction                          0.06407186 Eh      40.21 kcal/mol

--------
ENTHALPY
--------

The enthalpy is H = U + kB*T
                kB is Boltzmann's constant
Total thermal energy              ...  -3073.57185486 Eh
Thermal Enthalpy correction       ...      0.00316689 Eh       1.99 kcal/mol
-----------------------------------------------------------------------
Total Enthalpy                    ...  -3073.56868797 Eh

Note: Only C1 symmetry has been detected, increase convergence thresholds
      if your molecule has a higher symmetry. Symmetry factor of 1.0 is
      used for the rotational entropy correction.

Note: Rotational entropy computed according to Herzberg
Infrared and Raman Spectra, Chapter V,1, Van Nostrand Reinhold, 1945
Point Group:  C1, Symmetry Number:   1
Rotational constants in cm-1:     5.131935     0.027495     0.027495

Vibrational entropy computed according to the QRRHO of S. Grimme
Chem.Eur.J. 2012 18 9955 using a reference frequency of 100.0 cm-1

-------
ENTROPY
-------

The entropy contributions are T*S = T*(S(el)+S(vib)+S(rot)+S(trans))
     S(el)   - electronic entropy
     S(vib)  - vibrational entropy
     S(rot)  - rotational entropy
     S(trans)- translational entropy
The entropies will be listed as multiplied by the temperature to get
units of energy

Electronic entropy                ...      0.00000000 Eh      0.00 kcal/mol
Vibrational entropy               ...      0.03973699 Eh     24.94 kcal/mol
Rotational entropy                ...      0.04643902 Eh     29.14 kcal/mol
Translational entropy             ...      0.07413572 Eh     46.52 kcal/mol
-----------------------------------------------------------------------
Final entropy term                ...      0.16031172 Eh    100.60 kcal/mol

In case the symmetry of your molecule has not been determined correctly
or in case you have a reason to use a different symmetry number we print
out the resulting rotational entropy values for sn=1,12:

 non-linear molecules -----------------------------------
|  sn= 1 | S(rot)=       0.04643902 Eh     29.14 kcal/mol|
|  sn= 2 | S(rot)=       0.04424396 Eh     27.76 kcal/mol|
|  sn= 3 | S(rot)=       0.04295994 Eh     26.96 kcal/mol|
|  sn= 4 | S(rot)=       0.04204891 Eh     26.39 kcal/mol|
|  sn= 5 | S(rot)=       0.04134226 Eh     25.94 kcal/mol|
|  sn= 6 | S(rot)=       0.04076488 Eh     25.58 kcal/mol|
|  sn= 7 | S(rot)=       0.04027672 Eh     25.27 kcal/mol|
|  sn= 8 | S(rot)=       0.03985385 Eh     25.01 kcal/mol|
|  sn= 9 | S(rot)=       0.03948085 Eh     24.77 kcal/mol|
|  sn=10 | S(rot)=       0.03914720 Eh     24.57 kcal/mol|
|  sn=11 | S(rot)=       0.03884537 Eh     24.38 kcal/mol|
|  sn=12 | S(rot)=       0.03856982 Eh     24.20 kcal/mol|
 linear molecules ---------------------------------------
|  Dinfh | S(rot)=       0.03307591 Eh     20.76 kcal/mol|
|  Cinfv | S(rot)=       0.03527097 Eh     22.13 kcal/mol|
 --------------------------------------------------------

-------------------
GIBBS FREE ENERGY
-------------------

The Gibbs free energy is G = H - T*S

Total enthalpy                    ...  -3073.56868797 Eh
Total entropy correction          ...     -0.16031172 Eh   -100.60 kcal/mol
-----------------------------------------------------------------------
Final Gibbs free energy         ...  -3073.72899969 Eh

For completeness - the Gibbs free energy minus the electronic energy
G-E(el)                           ...     -0.09307297 Eh    -58.40 kcal/mol

                             ****ORCA TERMINATED NORMALLY****
TOTAL RUN TIME: 0 days 0 hours 1 minutes 9 seconds 784 msec
