                         Program Version 6.0.1  -  RELEASE   -
|  1> ! Opt Freq B3LYP def2-SVP
|  2> * xyzfile -1 1 reactant.xyz
|  3>
|  4>                          ****END OF INPUT****
 Total Charge           Charge          ....   -1
 Multiplicity           Mult            ....    1
 Number of Electrons    NEL             ....   62
FINAL SINGLE POINT ENERGY     -3073.544538978762
FINAL SINGLE POINT ENERGY     -3073.588083372195
FINAL SINGLE POINT ENERGY     -3073.613584411995
FINAL SINGLE POINT ENERGY     -3073.628375669338
FINAL SINGLE POINT ENERGY     -3073.632917606228
FINAL SINGLE POINT ENERGY     -3073.634230541717
FINAL SINGLE POINT ENERGY     -3073.634723648819
FINAL SINGLE POINT ENERGY     -3073.635145287414
FINAL SINGLE POINT ENERGY     -3073.635548040121
FINAL SINGLE POINT ENERGY     -3073.635770953547
FINAL SINGLE POINT ENERGY     -3073.635836511328
FINAL SINGLE POINT ENERGY     -3073.635922249470
FINAL SINGLE POINT ENERGY     -3073.635924906382
FINAL SINGLE POINT ENERGY     -3073.635926439913
                    ***********************HURRAY********************

CARTESIAN COORDINATES (ANGSTROEM)
---------------------------------
  C     -2.081149    3.357535    0.070010
  H     -1.011250    3.494910    0.226940
  Br    -3.002189    5.144508    0.572870
  H     -2.491174    2.590893    0.727584
  H     -2.314469    3.160217   -0.976345
  Cl    -0.787470    0.859747   -0.621070

 Multiplicity           Mult            ....    1
 Number of Electrons    NEL             ....   62
 Basis Dimension        Dim             ....   79

ORBITAL ENERGIES
----------------

  NO   OCC          E(Eh)            E(eV)
   0   2.0000    -482.611477    -13132.5259
   1   2.0000    -101.153144     -2752.5170
   2   2.0000     -62.295285     -1695.1409
   3   2.0000     -56.126982     -1527.2928
   4   2.0000     -56.124835     -1527.2344
   5   2.0000     -56.124834     -1527.2344
   6   2.0000     -10.069276      -273.9989
   7   2.0000      -9.104380      -247.7428
   8   2.0000      -8.513107      -231.6534
   9   2.0000      -6.868563      -186.9031
  10   2.0000      -6.866832      -186.8560
  11   2.0000      -6.866829      -186.8559
  12   2.0000      -6.345141      -172.6601
  13   2.0000      -6.334394      -172.3676
  14   2.0000      -6.334389      -172.3675
  15   2.0000      -2.459440       -66.9248
  16   2.0000      -2.456565       -66.8465
  17   2.0000      -2.456558       -66.8463
  18   2.0000      -2.448005       -66.6136
  19   2.0000      -2.447998       -66.6134
  20   2.0000      -0.617391       -16.8001
  21   2.0000      -0.500954       -13.6316
  22   2.0000      -0.453990       -12.3537
  23   2.0000      -0.265676        -7.2294
  24   2.0000      -0.265591        -7.2271
  25   2.0000      -0.205573        -5.5939
  26   2.0000      -0.121461        -3.3051
  27   2.0000      -0.121440        -3.3046
  28   2.0000      -0.007762        -0.2112
  29   2.0000      -0.004212        -0.1146
  30   2.0000      -0.004202        -0.1143
  31   0.0000       0.153089         4.1658
  32   0.0000       0.239383         6.5139
  33   0.0000       0.290808         7.9133
  34   0.0000       0.291035         7.9195
  35   0.0000       0.493254        13.4221

MULLIKEN ATOMIC CHARGES
-----------------------
   0 C :    0.022802
   1 H :    0.046669
   2 Br:   -0.373836
   3 H :    0.046681
   4 H :    0.046335
   5 Cl:   -0.788651
Sum of atomic charges:   -1.0000000

LOEWDIN ATOMIC CHARGES
----------------------
   0 C :   -0.072945
   1 H :    0.015910
   2 Br:   -0.204997
   3 H :    0.015938
   4 H :    0.015968
   5 Cl:   -0.769874

  Mayer bond orders larger than 0.100000
B(  0-C ,  1-H ) :   0.9700 B(  0-C ,  2-Br) :   0.7734 B(  0-C ,  3-H ) :   0.9701
B(  0-C ,  4-H ) :   0.9704

FINAL SINGLE POINT ENERGY     -3073.635926737131

DIPOLE MOMENT
-------------

Method             : SCF
Type of density    : Electron Density
Multiplicity       :   1
Irrep              :   0
Energy             : -3073.6359267371312853 Eh
Relativity type    :
Basis              : AO
                                X                 Y                 Z
Electronic contribution:     -7.244627641      14.033785460       3.927846583
Nuclear contribution   :      5.580095402     -10.815812550      -3.033619487
                        -----------------------------------------
Total Dipole Moment    :     -1.664532238       3.217972910       0.894227097
                        -----------------------------------------
Magnitude (a.u.)       :      3.731709973
Magnitude (Debye)      :      9.485252946

VIBRATIONAL FREQUENCIES
-----------------------

Scaling factor for frequencies =  1.000000000  (already applied!)

     0:       0.00 cm**-1
     1:       0.00 cm**-1
     2:       0.00 cm**-1
     3:       0.00 cm**-1
     4:       0.00 cm**-1
     5:       0.00 cm**-1
     6:      98.65 cm**-1
     7:      99.42 cm**-1
     8:     137.50 cm**-1
     9:     356.80 cm**-1
    10:     830.62 cm**-1
    11:     830.77 cm**-1
    12:    1142.06 cm**-1
    13:    1402.61 cm**-1
    14:    1402.80 cm**-1
    15:    3135.31 cm**-1
    16:    3286.97 cm**-1
    17:    3287.18 cm**-1

IR SPECTRUM
-----------

 Mode   freq       eps      Int      T**2         TX        TY        TZ
       cm**-1   L/(mol*cm) km/mol    a.u.
----------------------------------------------------------------------------
  6:     98.65   0.001276    6.45  0.004036  ( 0.034576 -0.000311  0.053298)
  7:     99.42   0.001275    6.44  0.004001  (-0.046072 -0.031663  0.029597)
  8:    137.50   0.011686   59.05  0.026521  ( 0.072423 -0.140455 -0.039347)
  9:    356.80   0.070686  357.22  0.061823  (-0.110699  0.214424  0.059927)
 10:    830.62   0.000841    4.25  0.000316  ( 0.004308  0.006403 -0.016015)
 11:    830.77   0.000846    4.27  0.000318  ( 0.015299  0.006384  0.006549)
 12:   1142.06   0.006408   32.38  0.001751  (-0.018551  0.036067  0.010292)
 13:   1402.61   0.000615    3.11  0.000137  (-0.004805 -0.005163  0.009331)
 14:   1402.80   0.000619    3.13  0.000138  (-0.009452 -0.002870 -0.006337)
 15:   3135.31   0.000053    0.27  0.000005  (-0.000991  0.001970  0.000640)
 16:   3286.97   0.000007    0.03  0.000001  ( 0.000264  0.000434 -0.000623)
 17:   3287.18   0.000007    0.04  0.000001  ( 0.000741  0.000223  0.000311)

--------------------------
THERMOCHEMISTRY AT 298.15K
--------------------------

Temperature         ...   298.15 K
Pressure            ...     1.00 atm
Total Mass          ...   130.39 AMU
Quasi RRHO          ...     True
Cut-Off Frequency   ...     1.00 cm^-1

Throughout the following assumptions are being made:
  (1) The electronic state is orbitally nondegenerate
  (2) There are no thermally accessible electronically excited states
  (3) Hindered rotations indicated by low frequency modes are not
      treated as such but are treated as vibrations and this may
      cause some error
  (4) All equations used are the standard statistical mechanics
      equations for an ideal gas
  (5) All vibrations are strictly harmonic

freq.      98.65  E(vib)   ...       0.46
freq.      99.42  E(vib)   ...       0.46
freq.     137.50  E(vib)   ...       0.42
freq.     356.80  E(vib)   ...       0.22
freq.     830.62  E(vib)   ...       0.04
freq.     830.77  E(vib)   ...       0.04
freq.    1142.06  E(vib)   ...       0.01
freq.    1402.61  E(vib)   ...       0.00
freq.    1402.80  E(vib)   ...       0.00
freq.    3135.31  E(vib)   ...       0.00
freq.    3286.97  E(vib)   ...       0.00
freq.    3287.18  E(vib)   ...       0.00

------------
INNER ENERGY
------------

The inner energy is: U= E(el) + E(ZPE) + E(vib) + E(rot) + E(trans)
    E(el)   - is the total energy from the electronic structure calculation
              = E(kin-el) + E(nuc-el) + E(el-el) + E(nuc-nuc)
    E(ZPE)  - the the zero temperature vibrational energy from the frequency calculation
    E(vib)  - the the finite temperature correction to E(ZPE) due to population
              of excited vibrational states
    E(rot)  - is the rotational thermal energy
    E(trans)- is the translational thermal energy

Summary of contributions to the inner energy U:
Electronic energy                ...  -3073.63592674 Eh
Zero point energy                ...      0.03647504 Eh      22.89 kcal/mol
Thermal vibrational correction   ...      0.00266803 Eh       1.67 kcal/mol
Thermal rotational correction    ...      0.00141627 Eh       0.89 kcal/mol
Thermal translational correction ...      0.00141627 Eh       0.89 kcal/mol
-----------------------------------------------------------------------
Total thermal energy                  -3073.59395112 Eh

Summary of corrections to the electronic energy:
(perhaps to be used in another calculation)
Total thermal correction                  0.00550057 Eh       3.45 kcal/mol
Non-thermal (ZPE) correction              0.03647504 Eh      22.89 kcal/mol
-----------------------------------------------------------------------
Total correction                          0.04197561 Eh      26.34 kcal/mol

--------
ENTHALPY
--------

The enthalpy is H = U + kB*T
                kB is Boltzmann's constant
Total thermal energy              ...  -3073.59395112 Eh
Thermal Enthalpy correction       ...      0.00094421 Eh       0.59 kcal/mol
-----------------------------------------------------------------------
Total Enthalpy                    ...  -3073.59300692 Eh

Note: Only C1 symmetry has been detected, increase convergence thresholds
      if your molecule has a higher symmetry. Symmetry factor of 1.0 is
      used for the rotational entropy correction.

Note: Rotational entropy computed according to Herzberg
Infrared and Raman Spectra, Chapter V,1, Van Nostrand Reinhold, 1945
Point Group:  C1, Symmetry Number:   1
Rotational constants in cm-1:     5.131935     0.027495     0.027495

Vibrational entropy computed according to the QRRHO of S. Grimme
Chem.Eur.J. 2012 18 9955 using a reference frequency of 100.0 cm-1

-------
ENTROPY
-------

The entropy contributions are T*S = T*(S(el)+S(vib)+S(rot)+S(trans))
     S(el)   - electronic entropy
     S(vib)  - vibrational entropy
     S(rot)  - rotational entropy
     S(trans)- translational entropy
The entropies will be listed as multiplied by the temperature to get
units of energy

Electronic entropy                ...      0.00000000 Eh      0.00 kcal/mol
Vibrational entropy               ...      0.00508076 Eh      3.19 kcal/mol
Rotational entropy                ...      0.01213188 Eh      7.61 kcal/mol
Translational entropy             ...      0.01924704 Eh     12.08 kcal/mol
-----------------------------------------------------------------------
Final entropy term                ...      0.03645968 Eh     22.88 kcal/mol

In case the symmetry of your molecule has not been determined correctly
or in case you have a reason to use a different symmetry number we print
out the resulting rotational entropy values for sn=1,12:

 non-linear molecules -----------------------------------
|  sn= 1 | S(rot)=       0.01213188 Eh      7.61 kcal/mol|
|  sn= 2 | S(rot)=       0.01147742 Eh      7.20 kcal/mol|
|  sn= 3 | S(rot)=       0.01109459 Eh      6.96 kcal/mol|
|  sn= 4 | S(rot)=       0.01082297 Eh      6.79 kcal/mol|
|  sn= 5 | S(rot)=       0.01061228 Eh      6.66 kcal/mol|
|  sn= 6 | S(rot)=       0.01044014 Eh      6.55 kcal/mol|
|  sn= 7 | S(rot)=       0.01029459 Eh      6.46 kcal/mol|
|  sn= 8 | S(rot)=       0.01016851 Eh      6.38 kcal/mol|
|  sn= 9 | S(rot)=       0.01005730 Eh      6.31 kcal/mol|
|  sn=10 | S(rot)=       0.00995782 Eh      6.25 kcal/mol|
|  sn=11 | S(rot)=       0.00986783 Eh      6.19 kcal/mol|
|  sn=12 | S(rot)=       0.00978568 Eh      6.14 kcal/mol|
 linear molecules ---------------------------------------
|  Dinfh | S(rot)=       0.00871897 Eh      5.47 kcal/mol|
|  Cinfv | S(rot)=       0.00937343 Eh      5.88 kcal/mol|
 --------------------------------------------------------

-------------------
GIBBS FREE ENERGY
-------------------

The Gibbs free energy is G = H - T*S

Total enthalpy                    ...  -3073.59300692 Eh
Total entropy correction          ...     -0.03645968 Eh    -22.88 kcal/mol
-----------------------------------------------------------------------
Final Gibbs free energy         ...  -3073.62946660 Eh

For completeness - the Gibbs free energy minus the electronic energy
G-E(el)                           ...      0.00646014 Eh      4.05 kcal/mol

                             ****ORCA TERMINATED NORMALLY****
TOTAL RUN TIME: 0 days 0 hours 4 minutes 12 seconds 800 msec
