                         Program Version 6.0.1  -  RELEASE   -
|  1> # SN2 Transition State search using my proven template
|  2> ! Freq B3LYP def2-SVP NEB-TS
|  3>
|  4> %NEB
|  5>  NEB_END_XYZFILE "product_opt.xyz"
|  6> end
|  7>
|  8> %geom
|  9>  MaxIter 600
| 10> end
| 11>
| 12> # Using the optimized reactant with the correct charge for SN2
| 13> * xyzfile -1 1 reactant_opt.xyz
| 14>
| 15>                          ****END OF INPUT****
 Total Charge           Charge          ....   -1
 Multiplicity           Mult            ....    1
 Number of Electrons    NEL             ....   62
FINAL SINGLE POINT ENERGY     -3073.633059435461
FINAL SINGLE POINT ENERGY     -3073.633048528122
FINAL SINGLE POINT ENERGY     -3073.633061506348
FINAL SINGLE POINT ENERGY     -3073.633062490206
FINAL SINGLE POINT ENERGY     -3073.633057495123

CARTESIAN COORDINATES (ANGSTROEM)
---------------------------------
  C     -0.027956    0.053756    0.015029
  H      0.972687    0.401028    0.234994
  Br    -1.093451    2.116816    0.590424
  H     -0.557564   -0.534177    0.752687
  H     -0.373603    0.052253   -1.010033
  Cl     1.079888   -2.089676   -0.583100

FINAL SINGLE POINT ENERGY     -3073.633062797723
                    ***********************HURRAY********************
 Multiplicity           Mult            ....    1
 Number of Electrons    NEL             ....   62
 Basis Dimension        Dim             ....   79

ORBITAL ENERGIES
----------------

  NO   OCC          E(Eh)            E(eV)
   0   2.0000    -482.554230    -13130.9682
   1   2.0000    -101.207082     -2753.9847
   2   2.0000     -62.237545     -1693.5697
   3   2.0000     -56.068869     -1525.7115
   4   2.0000     -56.067387     -1525.6712
   5   2.0000     -56.067386     -1525.6711
   6   2.0000     -10.079217      -274.2694
   7   2.0000      -9.158656      -249.2197
   8   2.0000      -8.454508      -230.0589
   9   2.0000      -6.924382      -188.4220
  10   2.0000      -6.920174      -188.3075
  11   2.0000      -6.920174      -188.3075
  12   2.0000      -6.284187      -171.0014
  13   2.0000      -6.277001      -170.8059
  14   2.0000      -6.276998      -170.8058
  15   2.0000      -2.398886       -65.2770
  16   2.0000      -2.396998       -65.2256
  17   2.0000      -2.396996       -65.2256
  18   2.0000      -2.391307       -65.0708
  19   2.0000      -2.391302       -65.0706
  20   2.0000      -0.558957       -15.2100
  21   2.0000      -0.518070       -14.0974
  22   2.0000      -0.479937       -13.0597
  23   2.0000      -0.274491        -7.4693
  24   2.0000      -0.274473        -7.4688
  25   2.0000      -0.142087        -3.8664
  26   2.0000      -0.078644        -2.1400
  27   2.0000      -0.078642        -2.1400
  28   2.0000      -0.049054        -1.3348
  29   2.0000      -0.049048        -1.3347
  30   2.0000      -0.047563        -1.2943
  31   0.0000       0.138673         3.7735
  32   0.0000       0.225418         6.1339
  33   0.0000       0.290859         7.9147
  34   0.0000       0.290871         7.9150
  35   0.0000       0.528173        14.3723

-------
TIMINGS
-------

FINAL SINGLE POINT ENERGY     -3073.633062806204
                    ***********************HURRAY************************

DIPOLE MOMENT
-------------

Method             : SCF
Type of density    : Electron Density
Multiplicity       :   1
Irrep              :   0
Energy             : -3073.6330628062037249 Eh
Relativity type    :
Basis              : AO
                                X                 Y                 Z
Electronic contribution:     -6.645531247      12.864403284       3.588084493
Nuclear contribution   :      5.784008770     -11.197389084      -3.122936683
                        -----------------------------------------
Total Dipole Moment    :     -0.861522476       1.667014200       0.465147810
                        -----------------------------------------
Magnitude (a.u.)       :      1.933266615
Magnitude (Debye)      :      4.913973217

VIBRATIONAL FREQUENCIES
-----------------------

Scaling factor for frequencies =  1.000000000  (already applied!)

     0:       0.00 cm**-1
     1:       0.00 cm**-1
     2:       0.00 cm**-1
     3:       0.00 cm**-1
     4:       0.00 cm**-1
     5:       0.00 cm**-1
     6:    -294.92 cm**-1  ***imaginary mode***
     7:     168.26 cm**-1
     8:     168.33 cm**-1
     9:     172.08 cm**-1
    10:     821.02 cm**-1
    11:     821.10 cm**-1
    12:     919.58 cm**-1
    13:    1362.03 cm**-1
    14:    1362.09 cm**-1
    15:    3184.93 cm**-1
    16:    3398.41 cm**-1
    17:    3398.60 cm**-1

IR SPECTRUM
-----------

 Mode   freq       eps      Int      T**2         TX        TY        TZ
       cm**-1   L/(mol*cm) km/mol    a.u.
----------------------------------------------------------------------------
  7:    168.26   0.001514    7.65  0.002808  (-0.047073 -0.020519 -0.013085)
  8:    168.33   0.001513    7.65  0.002805  ( 0.006231  0.017379 -0.049641)
  9:    172.08   0.000589    2.97  0.001067  (-0.014823  0.028025  0.007883)
 10:    821.02   0.000187    0.94  0.000071  ( 0.006171  0.004370 -0.003711)
 11:    821.10   0.000186    0.94  0.000071  ( 0.004259  0.000207  0.007254)
 12:    919.58   0.012980   65.60  0.004405  ( 0.029588 -0.057217 -0.015992)
 13:   1362.03   0.000731    3.69  0.000168  ( 0.003231 -0.001784  0.012405)
 14:   1362.09   0.000732    3.70  0.000168  (-0.011154 -0.006275  0.002010)
 15:   3184.93   0.000000    0.00  0.000000  (-0.000046  0.000089  0.000066)
 16:   3398.41   0.000487    2.46  0.000045  ( 0.004976  0.003411 -0.002877)
 17:   3398.60   0.000487    2.46  0.000045  (-0.003309 -0.000102 -0.005813)

--------------------------
THERMOCHEMISTRY AT 298.15K
--------------------------

Temperature         ...   298.15 K
Pressure            ...     1.00 atm
Total Mass          ...   130.39 AMU
Quasi RRHO          ...     True
Cut-Off Frequency   ...     1.00 cm^-1

Throughout the following assumptions are being made:
  (1) The electronic state is orbitally nondegenerate
  (2) There are no thermally accessible electronically excited states
  (3) Hindered rotations indicated by low frequency modes are not
      treated as such but are treated as vibrations and this may
      cause some error
  (4) All equations used are the standard statistical mechanics
      equations for an ideal gas
  (5) All vibrations are strictly harmonic

freq.     168.26  E(vib)   ...       0.38
freq.     168.33  E(vib)   ...       0.38
freq.     172.08  E(vib)   ...       0.38
freq.     821.02  E(vib)   ...       0.05
freq.     821.10  E(vib)   ...       0.05
freq.     919.58  E(vib)   ...       0.03
freq.    1362.03  E(vib)   ...       0.01
freq.    1362.09  E(vib)   ...       0.01
freq.    3184.93  E(vib)   ...       0.00
freq.    3398.41  E(vib)   ...       0.00
freq.    3398.60  E(vib)   ...       0.00

------------
INNER ENERGY
------------

The inner energy is: U= E(el) + E(ZPE) + E(vib) + E(rot) + E(trans)
    E(el)   - is the total energy from the electronic structure calculation
              = E(kin-el) + E(nuc-el) + E(el-el) + E(nuc-nuc)
    E(ZPE)  - the the zero temperature vibrational energy from the frequency calculation
    E(vib)  - the the finite temperature correction to E(ZPE) due to population
              of excited vibrational states
    E(rot)  - is the rotational thermal energy
    E(trans)- is the translational thermal energy

Summary of contributions to the inner energy U:
Electronic energy                ...  -3073.63306281 Eh
Zero point energy                ...      0.03594136 Eh      22.55 kcal/mol
Thermal vibrational correction   ...      0.00204272 Eh       1.28 kcal/mol
Thermal rotational correction    ...      0.00141627 Eh       0.89 kcal/mol
Thermal translational correction ...      0.00141627 Eh       0.89 kcal/mol
-----------------------------------------------------------------------
Total thermal energy                  -3073.59224619 Eh

Summary of corrections to the electronic energy:
(perhaps to be used in another calculation)
Total thermal correction                  0.00487526 Eh       3.06 kcal/mol
Non-thermal (ZPE) correction              0.03594136 Eh      22.55 kcal/mol
-----------------------------------------------------------------------
Total correction                          0.04081662 Eh      25.61 kcal/mol

--------
ENTHALPY
--------

The enthalpy is H = U + kB*T
                kB is Boltzmann's constant
Total thermal energy              ...  -3073.59224619 Eh
Thermal Enthalpy correction       ...      0.00094421 Eh       0.59 kcal/mol
-----------------------------------------------------------------------
Total Enthalpy                    ...  -3073.59130198 Eh

Note: Only C1 symmetry has been detected, increase convergence thresholds
      if your molecule has a higher symmetry. Symmetry factor of 1.0 is
      used for the rotational entropy correction.

Note: Rotational entropy computed according to Herzberg
Infrared and Raman Spectra, Chapter V,1, Van Nostrand Reinhold, 1945
Point Group:  C1, Symmetry Number:   1
Rotational constants in cm-1:     4.799568     0.028227     0.028227

Vibrational entropy computed according to the QRRHO of S. Grimme
Chem.Eur.J. 2012 18 9955 using a reference frequency of 100.0 cm-1

-------
ENTROPY
-------

The entropy contributions are T*S = T*(S(el)+S(vib)+S(rot)+S(trans))
     S(el)   - electronic entropy
     S(vib)  - vibrational entropy
     S(rot)  - rotational entropy
     S(trans)- translational entropy
The entropies will be listed as multiplied by the temperature to get
units of energy

Electronic entropy                ...      0.00000000 Eh      0.00 kcal/mol
Vibrational entropy               ...      0.00372464 Eh      2.34 kcal/mol
Rotational entropy                ...      0.01213868 Eh      7.62 kcal/mol
Translational entropy             ...      0.01924704 Eh     12.08 kcal/mol
-----------------------------------------------------------------------
Final entropy term                ...      0.03511035 Eh     22.03 kcal/mol

In case the symmetry of your molecule has not been determined correctly
or in case you have a reason to use a different symmetry number we print
out the resulting rotational entropy values for sn=1,12:

 non-linear molecules -----------------------------------
|  sn= 1 | S(rot)=       0.01213868 Eh      7.62 kcal/mol|
|  sn= 2 | S(rot)=       0.01148422 Eh      7.21 kcal/mol|
|  sn= 3 | S(rot)=       0.01110139 Eh      6.97 kcal/mol|
|  sn= 4 | S(rot)=       0.01082976 Eh      6.80 kcal/mol|
|  sn= 5 | S(rot)=       0.01061908 Eh      6.66 kcal/mol|
|  sn= 6 | S(rot)=       0.01044693 Eh      6.56 kcal/mol|
|  sn= 7 | S(rot)=       0.01030138 Eh      6.46 kcal/mol|
|  sn= 8 | S(rot)=       0.01017531 Eh      6.39 kcal/mol|
|  sn= 9 | S(rot)=       0.01006410 Eh      6.32 kcal/mol|
|  sn=10 | S(rot)=       0.00996462 Eh      6.25 kcal/mol|
|  sn=11 | S(rot)=       0.00987463 Eh      6.20 kcal/mol|
|  sn=12 | S(rot)=       0.00979247 Eh      6.14 kcal/mol|
 linear molecules ---------------------------------------
|  Dinfh | S(rot)=       0.00869416 Eh      5.46 kcal/mol|
|  Cinfv | S(rot)=       0.00934861 Eh      5.87 kcal/mol|
 --------------------------------------------------------

-------------------
GIBBS FREE ENERGY
-------------------

The Gibbs free energy is G = H - T*S

Total enthalpy                    ...  -3073.59130198 Eh
Total entropy correction          ...     -0.03511035 Eh    -22.03 kcal/mol
-----------------------------------------------------------------------
Final Gibbs free energy         ...  -3073.62641233 Eh

For completeness - the Gibbs free energy minus the electronic energy
G-E(el)                           ...      0.00665047 Eh      4.17 kcal/mol

                             ****ORCA TERMINATED NORMALLY****
TOTAL RUN TIME: 0 days 0 hours 9 minutes 2 seconds 255 msec
