                         Program Version 6.0.1  -  RELEASE   -
|  1> ! Freq B3LYP def2-SVP
|  2>
|  3> %freq
|  4> end
|  5>
|  6> %FREQ TEMP 298.15, 295, 300, 400, 600, 800, 1000
|  7> END
|  8>
|  9> * xyz -1 1
| 10>   C     -0.027956    0.053756    0.015029
| 11>   H      0.972687    0.401028    0.234994
| 12>   Br    -1.093451    2.116816    0.590424
| 13>   H     -0.557564   -0.534177    0.752687
| 14>   H     -0.373603    0.052253   -1.010033
| 15>   Cl     1.079888   -2.089676   -0.583100
| 16> *
| 17>
| 18>                          ****END OF INPUT****

CARTESIAN COORDINATES (ANGSTROEM)
---------------------------------
  C     -0.027956    0.053756    0.015029
  H      0.972687    0.401028    0.234994
  Br    -1.093451    2.116816    0.590424
  H     -0.557564   -0.534177    0.752687
  H     -0.373603    0.052253   -1.010033
  Cl     1.079888   -2.089676   -0.583100

 Total Charge           Charge          ....   -1
 Multiplicity           Mult            ....    1
 Number of Electrons    NEL             ....   62
 Basis Dimension        Dim             ....   79

ORBITAL ENERGIES
----------------

  NO   OCC          E(Eh)            E(eV)
   0   2.0000    -482.555021    -13130.9897
   1   2.0000    -101.205601     -2753.9444
   2   2.0000     -62.238292     -1693.5900
   3   2.0000     -56.069623     -1525.7320
   4   2.0000     -56.068136     -1525.6915
   5   2.0000     -56.068135     -1525.6915
   6   2.0000     -10.078582      -274.2522
   7   2.0000      -9.157414      -249.1859
   8   2.0000      -8.455199      -230.0777
   9   2.0000      -6.923107      -188.3873
  10   2.0000      -6.918914      -188.2732
  11   2.0000      -6.918913      -188.2732
  12   2.0000      -6.284893      -171.0206
  13   2.0000      -6.277682      -170.8244
  14   2.0000      -6.277679      -170.8243
  15   2.0000      -2.399585       -65.2960
  16   2.0000      -2.397692       -65.2445
  17   2.0000      -2.397689       -65.2444
  18   2.0000      -2.391980       -65.0891
  19   2.0000      -2.391976       -65.0890
  20   2.0000      -0.558955       -15.2099
  21   2.0000      -0.517830       -14.0909
  22   2.0000      -0.479669       -13.0525
  23   2.0000      -0.274271        -7.4633
  24   2.0000      -0.274238        -7.4624
  25   2.0000      -0.142102        -3.8668
  26   2.0000      -0.079023        -2.1503
  27   2.0000      -0.079022        -2.1503
  28   2.0000      -0.048447        -1.3183
  29   2.0000      -0.048441        -1.3181
  30   2.0000      -0.047230        -1.2852
  31   0.0000       0.138873         3.7789
  32   0.0000       0.225515         6.1366
  33   0.0000       0.290980         7.9180
  34   0.0000       0.290988         7.9182
  35   0.0000       0.527878        14.3643

MULLIKEN ATOMIC CHARGES
-----------------------
   0 C :    0.037035
   1 H :    0.063723
   2 Br:   -0.576614
   3 H :    0.063727
   4 H :    0.063705
   5 Cl:   -0.651576
Sum of atomic charges:   -1.0000000

LOEWDIN ATOMIC CHARGES
----------------------
   0 C :   -0.004513
   1 H :    0.016756
   2 Br:   -0.466307
   3 H :    0.016769
   4 H :    0.016761
   5 Cl:   -0.579467

  Mayer bond orders larger than 0.100000
B(  0-C ,  1-H ) :   0.9847 B(  0-C ,  2-Br) :   0.5300 B(  0-C ,  3-H ) :   0.9847
B(  0-C ,  4-H ) :   0.9847 B(  0-C ,  5-Cl) :   0.3748 B(  2-Br,  5-Cl) :   0.1281

FINAL SINGLE POINT ENERGY     -3073.633061103743

DIPOLE MOMENT
-------------

Method             : SCF
Type of density    : Electron Density
Multiplicity       :   1
Irrep              :   0
Energy             : -3073.6330611037428753 Eh
Relativity type    :
Basis              : AO
                                X                 Y                 Z
Electronic contribution:     -6.645073451      12.863635146       3.588057700
Nuclear contribution   :      5.783706162     -11.196786765      -3.122972278
                        -----------------------------------------
Total Dipole Moment    :     -0.861367289       1.666848381       0.465085422
                        -----------------------------------------
Magnitude (a.u.)       :      1.933039467
Magnitude (Debye)      :      4.913395852

VIBRATIONAL FREQUENCIES
-----------------------

Scaling factor for frequencies =  1.000000000  (already applied!)

     0:       0.00 cm**-1
     1:       0.00 cm**-1
     2:       0.00 cm**-1
     3:       0.00 cm**-1
     4:       0.00 cm**-1
     5:       0.00 cm**-1
     6:    -295.92 cm**-1  ***imaginary mode***
     7:     168.28 cm**-1
     8:     168.39 cm**-1
     9:     172.18 cm**-1
    10:     821.55 cm**-1
    11:     821.60 cm**-1
    12:     919.36 cm**-1
    13:    1362.51 cm**-1
    14:    1362.60 cm**-1
    15:    3184.46 cm**-1
    16:    3398.43 cm**-1
    17:    3398.69 cm**-1

IR SPECTRUM
-----------

 Mode   freq       eps      Int      T**2         TX        TY        TZ
       cm**-1   L/(mol*cm) km/mol    a.u.
----------------------------------------------------------------------------
  7:    168.28   0.001494    7.55  0.002771  (-0.042345 -0.013703 -0.028102)
  8:    168.39   0.001530    7.73  0.002836  ( 0.021127  0.023263 -0.042994)
  9:    172.18   0.000585    2.96  0.001061  (-0.014648  0.028075  0.007599)
 10:    821.55   0.000189    0.96  0.000072  (-0.004970 -0.004177  0.005455)
 11:    821.60   0.000191    0.97  0.000073  (-0.005668 -0.001659 -0.006143)
 12:    919.36   0.012853   64.96  0.004363  ( 0.029530 -0.056923 -0.015829)
 13:   1362.51   0.000741    3.74  0.000170  ( 0.011322  0.006418 -0.000574)
 14:   1362.60   0.000742    3.75  0.000170  ( 0.001719 -0.002908  0.012595)
 15:   3184.46   0.000000    0.00  0.000000  (-0.000072 -0.000121  0.000095)
 16:   3398.43   0.000469    2.37  0.000043  ( 0.005714  0.003014 -0.001171)
 17:   3398.69   0.000471    2.38  0.000043  (-0.001672  0.000979 -0.006286)

--------------------------
THERMOCHEMISTRY AT 1000.00K
--------------------------

Temperature         ...  1000.00 K
Pressure            ...     1.00 atm
Total Mass          ...   130.39 AMU
Quasi RRHO          ...     True
Cut-Off Frequency   ...     1.00 cm^-1

Throughout the following assumptions are being made:
  (1) The electronic state is orbitally nondegenerate
  (2) There are no thermally accessible electronically excited states
  (3) Hindered rotations indicated by low frequency modes are not
      treated as such but are treated as vibrations and this may
      cause some error
  (4) All equations used are the standard statistical mechanics
      equations for an ideal gas
  (5) All vibrations are strictly harmonic

freq.     168.28  E(vib)   ...       1.76
freq.     168.39  E(vib)   ...       1.76
freq.     172.18  E(vib)   ...       1.75
freq.     821.55  E(vib)   ...       1.04
freq.     821.60  E(vib)   ...       1.04
freq.     919.36  E(vib)   ...       0.95
freq.    1362.51  E(vib)   ...       0.64
freq.    1362.60  E(vib)   ...       0.64
freq.    3184.46  E(vib)   ...       0.09
freq.    3398.43  E(vib)   ...       0.07
freq.    3398.69  E(vib)   ...       0.07

------------
INNER ENERGY
------------

The inner energy is: U= E(el) + E(ZPE) + E(vib) + E(rot) + E(trans)
    E(el)   - is the total energy from the electronic structure calculation
              = E(kin-el) + E(nuc-el) + E(el-el) + E(nuc-nuc)
    E(ZPE)  - the the zero temperature vibrational energy from the frequency calculation
    E(vib)  - the the finite temperature correction to E(ZPE) due to population
              of excited vibrational states
    E(rot)  - is the rotational thermal energy
    E(trans)- is the translational thermal energy

Summary of contributions to the inner energy U:
Electronic energy                ...  -3073.63306110 Eh
Zero point energy                ...      0.03594507 Eh      22.56 kcal/mol
Thermal vibrational correction   ...      0.01564077 Eh       9.81 kcal/mol
Thermal rotational correction    ...      0.00475020 Eh       2.98 kcal/mol
Thermal translational correction ...      0.00475020 Eh       2.98 kcal/mol
-----------------------------------------------------------------------
Total thermal energy                  -3073.57197488 Eh

Summary of corrections to the electronic energy:
(perhaps to be used in another calculation)
Total thermal correction                  0.02514116 Eh      15.78 kcal/mol
Non-thermal (ZPE) correction              0.03594507 Eh      22.56 kcal/mol
-----------------------------------------------------------------------
Total correction                          0.06108623 Eh      38.33 kcal/mol

--------
ENTHALPY
--------

The enthalpy is H = U + kB*T
                kB is Boltzmann's constant
Total thermal energy              ...  -3073.57197488 Eh
Thermal Enthalpy correction       ...      0.00316689 Eh       1.99 kcal/mol
-----------------------------------------------------------------------
Total Enthalpy                    ...  -3073.56880798 Eh

Note: Only C1 symmetry has been detected, increase convergence thresholds
      if your molecule has a higher symmetry. Symmetry factor of 1.0 is
      used for the rotational entropy correction.

Note: Rotational entropy computed according to Herzberg
Infrared and Raman Spectra, Chapter V,1, Van Nostrand Reinhold, 1945
Point Group:  C1, Symmetry Number:   1
Rotational constants in cm-1:     4.799525     0.028229     0.028229

Vibrational entropy computed according to the QRRHO of S. Grimme
Chem.Eur.J. 2012 18 9955 using a reference frequency of 100.0 cm-1

-------
ENTROPY
-------

The entropy contributions are T*S = T*(S(el)+S(vib)+S(rot)+S(trans))
     S(el)   - electronic entropy
     S(vib)  - vibrational entropy
     S(rot)  - rotational entropy
     S(trans)- translational entropy
The entropies will be listed as multiplied by the temperature to get
units of energy

Electronic entropy                ...      0.00000000 Eh      0.00 kcal/mol
Vibrational entropy               ...      0.03386737 Eh     21.25 kcal/mol
Rotational entropy                ...      0.04646153 Eh     29.15 kcal/mol
Translational entropy             ...      0.07413572 Eh     46.52 kcal/mol
-----------------------------------------------------------------------
Final entropy term                ...      0.15446461 Eh     96.93 kcal/mol

In case the symmetry of your molecule has not been determined correctly
or in case you have a reason to use a different symmetry number we print
out the resulting rotational entropy values for sn=1,12:

 non-linear molecules -----------------------------------
|  sn= 1 | S(rot)=       0.04646153 Eh     29.15 kcal/mol|
|  sn= 2 | S(rot)=       0.04426647 Eh     27.78 kcal/mol|
|  sn= 3 | S(rot)=       0.04298245 Eh     26.97 kcal/mol|
|  sn= 4 | S(rot)=       0.04207142 Eh     26.40 kcal/mol|
|  sn= 5 | S(rot)=       0.04136476 Eh     25.96 kcal/mol|
|  sn= 6 | S(rot)=       0.04078739 Eh     25.59 kcal/mol|
|  sn= 7 | S(rot)=       0.04029922 Eh     25.29 kcal/mol|
|  sn= 8 | S(rot)=       0.03987636 Eh     25.02 kcal/mol|
|  sn= 9 | S(rot)=       0.03950336 Eh     24.79 kcal/mol|
|  sn=10 | S(rot)=       0.03916971 Eh     24.58 kcal/mol|
|  sn=11 | S(rot)=       0.03886788 Eh     24.39 kcal/mol|
|  sn=12 | S(rot)=       0.03859233 Eh     24.22 kcal/mol|
 linear molecules ---------------------------------------
|  Dinfh | S(rot)=       0.03299238 Eh     20.70 kcal/mol|
|  Cinfv | S(rot)=       0.03518744 Eh     22.08 kcal/mol|
 --------------------------------------------------------

-------------------
GIBBS FREE ENERGY
-------------------

The Gibbs free energy is G = H - T*S

Total enthalpy                    ...  -3073.56880798 Eh
Total entropy correction          ...     -0.15446461 Eh    -96.93 kcal/mol
-----------------------------------------------------------------------
Final Gibbs free energy         ...  -3073.72327260 Eh

For completeness - the Gibbs free energy minus the electronic energy
G-E(el)                           ...     -0.09021149 Eh    -56.61 kcal/mol

                             ****ORCA TERMINATED NORMALLY****
TOTAL RUN TIME: 0 days 0 hours 1 minutes 6 seconds 369 msec
