                         Program Version 6.0.1  -  RELEASE   -
|  1> ! Opt Freq B3LYP def2-SVP
|  2> * xyzfile -1 1 product.xyz
|  3>
|  4>                          ****END OF INPUT****
 Total Charge           Charge          ....   -1
 Multiplicity           Mult            ....    1
 Number of Electrons    NEL             ....   62
FINAL SINGLE POINT ENERGY     -3073.451081689231
FINAL SINGLE POINT ENERGY     -3073.516330835622
FINAL SINGLE POINT ENERGY     -3073.561239351432
FINAL SINGLE POINT ENERGY     -3073.601280510684
FINAL SINGLE POINT ENERGY     -3073.624509426933
FINAL SINGLE POINT ENERGY     -3073.637175414621
FINAL SINGLE POINT ENERGY     -3073.642612387957
FINAL SINGLE POINT ENERGY     -3073.646564385822
FINAL SINGLE POINT ENERGY     -3073.650203972706
FINAL SINGLE POINT ENERGY     -3073.651424940517
FINAL SINGLE POINT ENERGY     -3073.652643271680
FINAL SINGLE POINT ENERGY     -3073.652653618855
FINAL SINGLE POINT ENERGY     -3073.652658754352
FINAL SINGLE POINT ENERGY     -3073.652661779101
FINAL SINGLE POINT ENERGY     -3073.652664505194
FINAL SINGLE POINT ENERGY     -3073.652666662150
FINAL SINGLE POINT ENERGY     -3073.652668339187
FINAL SINGLE POINT ENERGY     -3073.652669138081
FINAL SINGLE POINT ENERGY     -3073.652669527006
                    ***********************HURRAY********************

CARTESIAN COORDINATES (ANGSTROEM)
---------------------------------
  C     -3.012470    1.360708   -0.076783
  H     -1.963780    1.536159   -0.333644
  Br    -1.270685   -1.366173    0.524577
  H     -3.409826    0.542420   -0.684172
  H     -3.095984    1.108978    0.984406
  Cl    -3.983756    2.892518   -0.414393

 Multiplicity           Mult            ....    1
 Number of Electrons    NEL             ....   62
 Basis Dimension        Dim             ....   79

ORBITAL ENERGIES
----------------

  NO   OCC          E(Eh)            E(eV)
   0   2.0000    -482.462777    -13128.4796
   1   2.0000    -101.340541     -2757.6163
   2   2.0000     -62.145510     -1691.0653
   3   2.0000     -55.975992     -1523.1842
   4   2.0000     -55.975991     -1523.1841
   5   2.0000     -55.975776     -1523.1783
   6   2.0000     -10.081804      -274.3398
   7   2.0000      -9.294713      -252.9220
   8   2.0000      -8.361871      -227.5381
   9   2.0000      -7.063363      -192.2039
  10   2.0000      -7.054182      -191.9541
  11   2.0000      -7.054181      -191.9540
  12   2.0000      -6.187484      -168.3700
  13   2.0000      -6.186495      -168.3431
  14   2.0000      -6.186493      -168.3430
  15   2.0000      -2.302983       -62.6674
  16   2.0000      -2.302745       -62.6609
  17   2.0000      -2.302743       -62.6608
  18   2.0000      -2.301988       -62.6403
  19   2.0000      -2.301988       -62.6403
  20   2.0000      -0.685476       -18.6528
  21   2.0000      -0.512212       -13.9380
  22   2.0000      -0.435375       -11.8471
  23   2.0000      -0.282734        -7.6936
  24   2.0000      -0.282590        -7.6897
  25   2.0000      -0.254305        -6.9200
  26   2.0000      -0.151028        -4.1097
  27   2.0000      -0.151010        -4.1092
  28   2.0000      -0.004976        -0.1354
  29   2.0000      -0.002312        -0.0629
  30   2.0000      -0.002300        -0.0626
  31   0.0000       0.186533         5.0758
  32   0.0000       0.234005         6.3676
  33   0.0000       0.279205         7.5975
  34   0.0000       0.279352         7.6015
  35   0.0000       0.531365        14.4592

MULLIKEN ATOMIC CHARGES
-----------------------
   0 C :    0.042615
   1 H :    0.051385
   2 Br:   -0.889905
   3 H :    0.051085
   4 H :    0.051286
   5 Cl:   -0.306467
Sum of atomic charges:   -1.0000000

LOEWDIN ATOMIC CHARGES
----------------------
   0 C :   -0.079031
   1 H :    0.020028
   2 Br:   -0.881391
   3 H :    0.019998
   4 H :    0.020023
   5 Cl:   -0.099627

  Mayer bond orders larger than 0.100000
B(  0-C ,  1-H ) :   0.9714 B(  0-C ,  3-H ) :   0.9717 B(  0-C ,  4-H ) :   0.9716
B(  0-C ,  5-Cl) :   0.8803

FINAL SINGLE POINT ENERGY     -3073.652669594782

DIPOLE MOMENT
-------------

Method             : SCF
Type of density    : Electron Density
Multiplicity       :   1
Irrep              :   0
Energy             : -3073.6526695947823100 Eh
Relativity type    :
Basis              : AO
                                X                 Y                 Z
Electronic contribution:      7.212681636     -11.295504427       2.491085363
Nuclear contribution   :     -8.026298318      12.568863754      -2.771997535
                        -----------------------------------------
Total Dipole Moment    :     -0.813616682       1.273359327      -0.280912172
                        -----------------------------------------
Magnitude (a.u.)       :      1.536986575
Magnitude (Debye)      :      3.906709401

VIBRATIONAL FREQUENCIES
-----------------------

Scaling factor for frequencies =  1.000000000  (already applied!)

     0:       0.00 cm**-1
     1:       0.00 cm**-1
     2:       0.00 cm**-1
     3:       0.00 cm**-1
     4:       0.00 cm**-1
     5:       0.00 cm**-1
     6:      70.35 cm**-1
     7:      72.82 cm**-1
     8:      93.46 cm**-1
     9:     590.39 cm**-1
    10:     937.45 cm**-1
    11:     937.93 cm**-1
    12:    1277.25 cm**-1
    13:    1432.68 cm**-1
    14:    1432.90 cm**-1
    15:    3104.45 cm**-1
    16:    3232.36 cm**-1
    17:    3232.56 cm**-1

IR SPECTRUM
-----------

 Mode   freq       eps      Int      T**2         TX        TY        TZ
       cm**-1   L/(mol*cm) km/mol    a.u.
----------------------------------------------------------------------------
  6:     70.35   0.000923    4.67  0.004095  ( 0.029825  0.028271  0.049053)
  7:     72.82   0.000925    4.67  0.003964  (-0.045328 -0.019832  0.038939)
  8:     93.46   0.002529   12.78  0.008443  ( 0.048308 -0.076420  0.016409)
  9:    590.39   0.040354  203.93  0.021330  ( 0.077043 -0.121159  0.026737)
 10:    937.45   0.000378    1.91  0.000126  ( 0.008036  0.003932 -0.006764)
 11:    937.93   0.000374    1.89  0.000125  ( 0.004856  0.005133  0.008638)
 12:   1277.25   0.000374    1.89  0.000091  (-0.004947  0.007995 -0.001750)
 13:   1432.68   0.000867    4.38  0.000189  (-0.011664 -0.006232  0.003740)
 14:   1432.90   0.000854    4.32  0.000186  (-0.001965 -0.004044 -0.012879)
 15:   3104.45   0.000984    4.97  0.000099  ( 0.005219 -0.008262  0.001843)
 16:   3232.36   0.000267    1.35  0.000026  (-0.004096 -0.002345  0.001871)
 17:   3232.56   0.000277    1.40  0.000027  ( 0.001144  0.001793  0.004709)

--------------------------
THERMOCHEMISTRY AT 298.15K
--------------------------

Temperature         ...   298.15 K
Pressure            ...     1.00 atm
Total Mass          ...   130.39 AMU
Quasi RRHO          ...     True
Cut-Off Frequency   ...     1.00 cm^-1

Throughout the following assumptions are being made:
  (1) The electronic state is orbitally nondegenerate
  (2) There are no thermally accessible electronically excited states
  (3) Hindered rotations indicated by low frequency modes are not
      treated as such but are treated as vibrations and this may
      cause some error
  (4) All equations used are the standard statistical mechanics
      equations for an ideal gas
  (5) All vibrations are strictly harmonic

freq.      70.35  E(vib)   ...       0.50
freq.      72.82  E(vib)   ...       0.49
freq.      93.46  E(vib)   ...       0.47
freq.     590.39  E(vib)   ...       0.10
freq.     937.45  E(vib)   ...       0.03
freq.     937.93  E(vib)   ...       0.03
freq.    1277.25  E(vib)   ...       0.01
freq.    1432.68  E(vib)   ...       0.00
freq.    1432.90  E(vib)   ...       0.00
freq.    3104.45  E(vib)   ...       0.00
freq.    3232.36  E(vib)   ...       0.00
freq.    3232.56  E(vib)   ...       0.00

------------
INNER ENERGY
------------

The inner energy is: U= E(el) + E(ZPE) + E(vib) + E(rot) + E(trans)
    E(el)   - is the total energy from the electronic structure calculation
              = E(kin-el) + E(nuc-el) + E(el-el) + E(nuc-nuc)
    E(ZPE)  - the the zero temperature vibrational energy from the frequency calculation
    E(vib)  - the the finite temperature correction to E(ZPE) due to population
              of excited vibrational states
    E(rot)  - is the rotational thermal energy
    E(trans)- is the translational thermal energy

Summary of contributions to the inner energy U:
Electronic energy                ...  -3073.65266959 Eh
Zero point energy                ...      0.03739520 Eh      23.47 kcal/mol
Thermal vibrational correction   ...      0.00261247 Eh       1.64 kcal/mol
Thermal rotational correction    ...      0.00141627 Eh       0.89 kcal/mol
Thermal translational correction ...      0.00141627 Eh       0.89 kcal/mol
-----------------------------------------------------------------------
Total thermal energy                  -3073.60982938 Eh

Summary of corrections to the electronic energy:
(perhaps to be used in another calculation)
Total thermal correction                  0.00544501 Eh       3.42 kcal/mol
Non-thermal (ZPE) correction              0.03739520 Eh      23.47 kcal/mol
-----------------------------------------------------------------------
Total correction                          0.04284021 Eh      26.88 kcal/mol

--------
ENTHALPY
--------

The enthalpy is H = U + kB*T
                kB is Boltzmann's constant
Total thermal energy              ...  -3073.60982938 Eh
Thermal Enthalpy correction       ...      0.00094421 Eh       0.59 kcal/mol
-----------------------------------------------------------------------
Total Enthalpy                    ...  -3073.60888517 Eh

Note: Only C1 symmetry has been detected, increase convergence thresholds
      if your molecule has a higher symmetry. Symmetry factor of 1.0 is
      used for the rotational entropy correction.

Note: Rotational entropy computed according to Herzberg
Infrared and Raman Spectra, Chapter V,1, Van Nostrand Reinhold, 1945
Point Group:  C1, Symmetry Number:   1
Rotational constants in cm-1:     5.222248     0.024592     0.024592

Vibrational entropy computed according to the QRRHO of S. Grimme
Chem.Eur.J. 2012 18 9955 using a reference frequency of 100.0 cm-1

-------
ENTROPY
-------

The entropy contributions are T*S = T*(S(el)+S(vib)+S(rot)+S(trans))
     S(el)   - electronic entropy
     S(vib)  - vibrational entropy
     S(rot)  - rotational entropy
     S(trans)- translational entropy
The entropies will be listed as multiplied by the temperature to get
units of energy

Electronic entropy                ...      0.00000000 Eh      0.00 kcal/mol
Vibrational entropy               ...      0.00510099 Eh      3.20 kcal/mol
Rotational entropy                ...      0.01222899 Eh      7.67 kcal/mol
Translational entropy             ...      0.01924704 Eh     12.08 kcal/mol
-----------------------------------------------------------------------
Final entropy term                ...      0.03657702 Eh     22.95 kcal/mol

In case the symmetry of your molecule has not been determined correctly
or in case you have a reason to use a different symmetry number we print
out the resulting rotational entropy values for sn=1,12:

 non-linear molecules -----------------------------------
|  sn= 1 | S(rot)=       0.01222899 Eh      7.67 kcal/mol|
|  sn= 2 | S(rot)=       0.01157453 Eh      7.26 kcal/mol|
|  sn= 3 | S(rot)=       0.01119170 Eh      7.02 kcal/mol|
|  sn= 4 | S(rot)=       0.01092007 Eh      6.85 kcal/mol|
|  sn= 5 | S(rot)=       0.01070939 Eh      6.72 kcal/mol|
|  sn= 6 | S(rot)=       0.01053724 Eh      6.61 kcal/mol|
|  sn= 7 | S(rot)=       0.01039169 Eh      6.52 kcal/mol|
|  sn= 8 | S(rot)=       0.01026562 Eh      6.44 kcal/mol|
|  sn= 9 | S(rot)=       0.01015441 Eh      6.37 kcal/mol|
|  sn=10 | S(rot)=       0.01005493 Eh      6.31 kcal/mol|
|  sn=11 | S(rot)=       0.00996494 Eh      6.25 kcal/mol|
|  sn=12 | S(rot)=       0.00988278 Eh      6.20 kcal/mol|
 linear molecules ---------------------------------------
|  Dinfh | S(rot)=       0.00882431 Eh      5.54 kcal/mol|
|  Cinfv | S(rot)=       0.00947877 Eh      5.95 kcal/mol|
 --------------------------------------------------------

-------------------
GIBBS FREE ENERGY
-------------------

The Gibbs free energy is G = H - T*S

Total enthalpy                    ...  -3073.60888517 Eh
Total entropy correction          ...     -0.03657702 Eh    -22.95 kcal/mol
-----------------------------------------------------------------------
Final Gibbs free energy         ...  -3073.64546219 Eh

For completeness - the Gibbs free energy minus the electronic energy
G-E(el)                           ...      0.00720740 Eh      4.52 kcal/mol

                             ****ORCA TERMINATED NORMALLY****
TOTAL RUN TIME: 0 days 0 hours 6 minutes 10 seconds 893 msec
